           3
 Sampled coordinates at step            2
Ge    0.68182811E-12   -0.27487831E+01   -0.80687700E+00
H    -0.55479225E-12    0.76898516E+00   -0.95548893E+00
H    -0.46706421E-12    0.19797980E+01    0.17623659E+01
