           3
 Sampled coordinates at step            2
Ge    0.34051711E-14   -0.27578060E-02    0.60979873E-01
H    -0.17089543E-12    0.12734127E+01   -0.97363002E+00
H     0.93424649E-13   -0.10711353E+01   -0.77362853E+00
